srun: error: Invalid user id 1002: No error
srun: Warning: Unable to assume uid=1002

     Program PWSCF v.6.5 starts on 19Apr2021 at 17:26:53 

     This program is part of the open-source Quantum ESPRESSO suite
     for quantum simulation of materials; please cite
         "P. Giannozzi et al., J. Phys.:Condens. Matter 21 395502 (2009);
         "P. Giannozzi et al., J. Phys.:Condens. Matter 29 465901 (2017);
          URL http://www.quantum-espresso.org", 
     in publications or presentations arising from this work. More details at
     http://www.quantum-espresso.org/quote

     Parallel version (MPI), running on    32 processors

     MPI processes distributed on     1 nodes
     R & G space division:  proc/nbgrp/npool/nimage =      32
     Reading input from MD0001K.in

     Current dimensions of program PWSCF are:
     Max number of different atomic species (ntypx) = 10
     Max number of k-points (npk) =  40000
     Max angular momentum in pseudopotentials (lmaxx) =  3
               file Al.pbe-n-kjpaw_psl.1.0.0.UPF: wavefunction(s)  3S 3P renormalized
               file Nb.pbe-spn-kjpaw_psl.0.3.0.UPF: wavefunction(s)  4S 4P renormalized

     Subspace diagonalization in iterative solution of the eigenvalue problem:
     a serial algorithm will be used

     Found symmetry operation: I + ( -0.0000 -0.5000  0.5000)
     This is a supercell, fractional translations are disabled

     Parallelization info
     --------------------
     sticks:   dense  smooth     PW     G-vecs:    dense   smooth      PW
     Min          64      28      8                 2173      637     104
     Max          65      29      9                 2178      642     109
     Sum        2053     901    277                69599    20479    3407



     bravais-lattice index     =            0
     lattice parameter (alat)  =       7.6373  a.u.
     unit-cell volume          =     445.4683 (a.u.)^3
     number of atoms/cell      =            4
     number of atomic types    =            6
     number of electrons       =        12.00
     number of Kohn-Sham states=           10
     kinetic-energy cutoff     =      48.9484  Ry
     charge density cutoff     =     440.5350  Ry
     convergence threshold     =      1.0E-06
     mixing beta               =       0.4000
     number of iterations used =            8  plain     mixing
     Exchange-correlation= SLA  PW   PBE  PBE
                           (   1   4   3   4   0   0   0)
     nstep                     =          100


     celldm(1)=   7.637283  celldm(2)=   0.000000  celldm(3)=   0.000000
     celldm(4)=   0.000000  celldm(5)=   0.000000  celldm(6)=   0.000000

     crystal axes: (cart. coord. in units of alat)
               a(1) = (   1.000000   0.000000   0.000000 )  
               a(2) = (   0.000000   1.000000   0.000000 )  
               a(3) = (   0.000000   0.000000   1.000001 )  

     reciprocal axes: (cart. coord. in units 2 pi/alat)
               b(1) = (  1.000000 -0.000000 -0.000000 )  
               b(2) = ( -0.000000  1.000000 -0.000000 )  
               b(3) = ( -0.000000 -0.000000  0.999999 )  


     PseudoPot. # 1 for Al read from file:
     /opt/QEpot/SSSP_precision_pseudos/Al.pbe-n-kjpaw_psl.1.0.0.UPF
     MD5 check sum: cfc449ca30b5f3223ec38ddd88ac046d
     Pseudo is Projector augmented-wave + core cor, Zval =  3.0
     Generated using "atomic" code by A. Dal Corso v.5.1
     Shape of augmentation charge: PSQ
     Using radial grid of 1135 points,  6 beta functions with: 
                l(1) =   0
                l(2) =   0
                l(3) =   1
                l(4) =   1
                l(5) =   2
                l(6) =   2
     Q(r) pseudized with 0 coefficients 


     PseudoPot. # 2 for Mo read from file:
     /opt/QEpot/SSSP_precision_pseudos/Mo_ONCV_PBE-1.0.oncvpsp.upf
     MD5 check sum: 1b5d28e075c9ccadda658a603575cd1f
     Pseudo is Norm-conserving, Zval = 14.0
     Generated using ONCVPSP code by D. R. Hamann
     Using radial grid of 1526 points,  6 beta functions with: 
                l(1) =   0
                l(2) =   0
                l(3) =   1
                l(4) =   1
                l(5) =   2
                l(6) =   2

     PseudoPot. # 3 for Nb read from file:
     /opt/QEpot/SSSP_precision_pseudos/Nb.pbe-spn-kjpaw_psl.0.3.0.UPF
     MD5 check sum: 411d72ad547312f8017e2943ceca08cc
     Pseudo is Projector augmented-wave + core cor, Zval = 13.0
     Generated using "atomic" code by A. Dal Corso v.5.0.99 svn rev. 10869
     Shape of augmentation charge: PSQ
     Using radial grid of 1227 points,  6 beta functions with: 
                l(1) =   0
                l(2) =   0
                l(3) =   1
                l(4) =   1
                l(5) =   2
                l(6) =   2
     Q(r) pseudized with 0 coefficients 


     PseudoPot. # 4 for Ta read from file:
     /opt/QEpot/SSSP_precision_pseudos/Ta_pbe_v1.uspp.F.UPF
     MD5 check sum: f8bbe9446314a3b8ea5d9f3e3836c939
     Pseudo is Ultrasoft + core correction, Zval = 13.0
     Generated by new atomic code, or converted to UPF format
     Using radial grid of  921 points,  7 beta functions with: 
                l(1) =   0
                l(2) =   0
                l(3) =   1
                l(4) =   1
                l(5) =   2
                l(6) =   2
                l(7) =   3
     Q(r) pseudized with  6 coefficients,  rinner =    1.300   1.300   1.300
                                                       1.300   1.300   1.300
                                                       1.300

     PseudoPot. # 5 for Tl read from file:
     /opt/QEpot/SSSP_precision_pseudos/Ti_pbe_v1.2.uspp.F.UPF
     MD5 check sum: b76cf1f7e72655a2b2c53cf6385d7059
     Pseudo is Ultrasoft + core correction, Zval = 13.0
     Generated by new atomic code, or converted to UPF format
     Using radial grid of  899 points,  6 beta functions with: 
                l(1) =   0
                l(2) =   0
                l(3) =   1
                l(4) =   1
                l(5) =   2
                l(6) =   2
     Q(r) pseudized with  6 coefficients,  rinner =    1.100   1.100   1.100
                                                       1.100   1.100

     PseudoPot. # 6 for Zr read from file:
     /opt/QEpot/SSSP_precision_pseudos/Zr_pbe_v1.uspp.F.UPF
     MD5 check sum: 5db81b1e868ab7776c4564c113de050b
     Pseudo is Ultrasoft + core correction, Zval = 12.0
     Generated by new atomic code, or converted to UPF format
     Using radial grid of  887 points,  6 beta functions with: 
                l(1) =   0
                l(2) =   0
                l(3) =   1
                l(4) =   1
                l(5) =   2
                l(6) =   2
     Q(r) pseudized with  6 coefficients,  rinner =    1.200   1.200   1.200
                                                       1.200   1.200

     atomic species   valence    mass     pseudopotential
        Al             3.00    26.98154     Al( 1.00)
        Mo            14.00    95.95000     Mo( 1.00)
        Nb            13.00    92.90638     Nb( 1.00)
        Ta            13.00   180.94788     Ta( 1.00)
        Ti            13.00    47.86700     Tl( 1.00)
        Zr            12.00    91.22400     Zr( 1.00)

      cell mass =   8.20140 AMU 

     No symmetry found



   Cartesian axes

     site n.     atom                  positions (alat units)
         1           Al  tau(   1) = (  -0.0000001  -0.0000001  -0.0000000  )
         2           Al  tau(   2) = (  -0.0000002   0.5000001   0.5000002  )
         3           Al  tau(   3) = (   0.5000003  -0.0000001   0.5000005  )
         4           Al  tau(   4) = (   0.5000001   0.5000001   0.0000001  )

     number of k points=   504  Gaussian smearing, width (Ry)=  0.0100

     Number of k-points >= 100: set verbosity='high' to print them.

     Dense  grid:    69599 G-vectors     FFT dimensions: (  54,  54,  54)

     Smooth grid:    20479 G-vectors     FFT dimensions: (  36,  36,  36)

     Estimated max dynamical RAM per process >      66.30 MB

     Estimated total dynamical RAM >       2.07 GB

     Initial potential from superposition of free atoms

     starting charge   11.99084, renormalised to   12.00000
     Starting wfcs are   16 randomized atomic wfcs
     Checking if some PAW data can be deallocated... 

     total cpu time spent up to now is       11.3 secs

     Self-consistent Calculation

     iteration #  1     ecut=    48.95 Ry     beta= 0.40
     Davidson diagonalization with overlap
     ethr =  1.00E-02,  avg # of iterations =  3.3

     Threshold (ethr) on eigenvalues was too large:
     Diagonalizing with lowered threshold

     Davidson diagonalization with overlap
     ethr =  1.82E-04,  avg # of iterations =  3.2

     total cpu time spent up to now is       24.0 secs

     total energy              =    -158.01225769 Ry
     Harris-Foulkes estimate   =    -158.01608232 Ry
     estimated scf accuracy    <       0.02170523 Ry

     iteration #  2     ecut=    48.95 Ry     beta= 0.40
     Davidson diagonalization with overlap
     ethr =  1.81E-04,  avg # of iterations =  1.0

     total cpu time spent up to now is       29.0 secs

     total energy              =    -158.01032135 Ry
     Harris-Foulkes estimate   =    -158.01236564 Ry
     estimated scf accuracy    <       0.00744310 Ry

     iteration #  3     ecut=    48.95 Ry     beta= 0.40
     Davidson diagonalization with overlap
     ethr =  6.20E-05,  avg # of iterations =  1.2

     total cpu time spent up to now is       33.7 secs

     total energy              =    -158.01048466 Ry
     Harris-Foulkes estimate   =    -158.01048904 Ry
     estimated scf accuracy    <       0.00001206 Ry

     iteration #  4     ecut=    48.95 Ry     beta= 0.40
     Davidson diagonalization with overlap
     ethr =  1.01E-07,  avg # of iterations =  3.9

     total cpu time spent up to now is       41.0 secs

     total energy              =    -158.01049797 Ry
     Harris-Foulkes estimate   =    -158.01049875 Ry
     estimated scf accuracy    <       0.00000297 Ry

     iteration #  5     ecut=    48.95 Ry     beta= 0.40
     Davidson diagonalization with overlap
     ethr =  2.48E-08,  avg # of iterations =  1.1

     total cpu time spent up to now is       45.8 secs

     End of self-consistent calculation

     Number of k-points >= 100: set verbosity='high' to print the bands.

     the Fermi energy is     7.9356 ev

!    total energy              =    -158.01049803 Ry
     Harris-Foulkes estimate   =    -158.01049803 Ry
     estimated scf accuracy    <       0.00000001 Ry

     convergence has been achieved in   5 iterations

     Forces acting on atoms (cartesian axes, Ry/au):

     atom    1 type  1   force =    -0.00000535   -0.00000810   -0.00000435
     atom    2 type  1   force =    -0.00000319    0.00000765    0.00000746
     atom    3 type  1   force =     0.00000272   -0.00000721   -0.00000051
     atom    4 type  1   force =     0.00000582    0.00000766   -0.00000260

     Total force =     0.000020     Total SCF correction =     0.000027
     SCF correction compared to forces is large: reduce conv_thr to get better values


     Computing stress (Cartesian axis) and pressure

          total   stress  (Ry/bohr**3)                   (kbar)     P=        0.09
   0.00000058  -0.00000001  -0.00000003            0.09       -0.00       -0.00
  -0.00000001   0.00000058  -0.00000003           -0.00        0.08       -0.00
  -0.00000003  -0.00000003   0.00000060           -0.00       -0.00        0.09


     Entering Dynamics;  it =     1   time =  0.00000 pico-seconds

 natom=0 for type           2 in sub ranv (1) !!!! 
 natom=0 for type           3 in sub ranv (1) !!!! 
 natom=0 for type           4 in sub ranv (1) !!!! 
 natom=0 for type           5 in sub ranv (1) !!!! 
 natom=0 for type           6 in sub ranv (1) !!!! 
  new lattice vectors (alat unit) :
   1.000000158   0.000000007   0.000000075
   0.000000007   1.000000040   0.000000058
   0.000000075   0.000000058   1.000000757
  new unit-cell volume =    445.4685 (a.u.)^3
  new positions in cryst coord
Al      -0.000002276   0.000000296  -0.000001031
Al       0.000000191   0.500000131   0.500001713
Al       0.500001967  -0.000001360   0.499998908
Al       0.500000118   0.500000933   0.000000410
  new positions in cart coord (alat unit)
Al      -0.000002276   0.000000296  -0.000001031
Al       0.000000232   0.500000180   0.500002120
Al       0.500002083  -0.000001327   0.499999324
Al       0.500000201   0.500000956   0.000000476

     Ekin =     0.00000003 Ry    T =    0.0 K  Etot =  -158.01049800
     new unit-cell volume =    445.46853 a.u.^3 (    66.01162 Ang^3 )
     density =      2.71491 g/cm^3

CELL_PARAMETERS (angstrom)
   4.041476627   0.000000029   0.000000303
   0.000000029   4.041476150   0.000000233
   0.000000303   0.000000233   4.041479049

ATOMIC_POSITIONS (angstrom)
Al           -0.0000091991        0.0000011948       -0.0000041669
Al            0.0000009379        2.0207387219        2.0207465630
Al            2.0207464148       -0.0000053637        2.0207352643
Al            2.0207388055        2.0207418587        0.0000019244



     Writing output data file ./pwscf.save/
     NEW-OLD atomic charge density approx. for the potential
     extrapolated charge   12.00001, renormalised to   12.00000

     total cpu time spent up to now is       56.6 secs

     Self-consistent Calculation

     iteration #  1     ecut=    48.95 Ry     beta= 0.40
     Davidson diagonalization with overlap
     ethr =  1.00E-06,  avg # of iterations =  1.6

     Threshold (ethr) on eigenvalues was too large:
     Diagonalizing with lowered threshold

     Davidson diagonalization with overlap
     ethr =  4.63E-11,  avg # of iterations =  2.7

     total cpu time spent up to now is       67.1 secs

     End of self-consistent calculation

     Number of k-points >= 100: set verbosity='high' to print the bands.

     the Fermi energy is     7.9356 ev

!    total energy              =    -158.01049804 Ry
     Harris-Foulkes estimate   =    -158.01050274 Ry
     estimated scf accuracy    <          8.3E-09 Ry

     convergence has been achieved in   1 iterations

     Forces acting on atoms (cartesian axes, Ry/au):

     atom    1 type  1   force =     0.00000501    0.00000550    0.00000287
     atom    2 type  1   force =     0.00000320   -0.00000559   -0.00000380
     atom    3 type  1   force =    -0.00000430    0.00000610   -0.00000105
     atom    4 type  1   force =    -0.00000391   -0.00000601    0.00000197

     Total force =     0.000015     Total SCF correction =     0.000046
     SCF correction compared to forces is large: reduce conv_thr to get better values


     Computing stress (Cartesian axis) and pressure

          total   stress  (Ry/bohr**3)                   (kbar)     P=        0.10
   0.00000068   0.00000000   0.00000000            0.10        0.00        0.00
   0.00000000   0.00000068   0.00000000            0.00        0.10        0.00
   0.00000000   0.00000000   0.00000068            0.00        0.00        0.10


     Entering Dynamics;  it =     2   time =  0.00097 pico-seconds

  new lattice vectors (alat unit) :
   1.000000594   0.000000005   0.000000068
   0.000000005   1.000000475   0.000000051
   0.000000068   0.000000051   1.000001200
  new unit-cell volume =    445.4691 (a.u.)^3
  new positions in cryst coord
Al      -0.000004452   0.000000683  -0.000002010
Al       0.000000667   0.500000125   0.500003500
Al       0.500003662  -0.000002531   0.499997663
Al       0.500000124   0.500001723   0.000000847
  new positions in cart coord (alat unit)
Al      -0.000004452   0.000000683  -0.000002010
Al       0.000000703   0.500000388   0.500004126
Al       0.500003992  -0.000002503   0.499998297
Al       0.500000424   0.500001963   0.000000906

     Ekin =     0.00000003 Ry    T =    0.0 K  Etot =  -158.01049801
     new unit-cell volume =    445.46912 a.u.^3 (    66.01171 Ang^3 )
     density =      2.71491 g/cm^3

CELL_PARAMETERS (angstrom)
   4.041478390   0.000000022   0.000000273
   0.000000022   4.041477909   0.000000207
   0.000000273   0.000000207   4.041480840

ATOMIC_POSITIONS (angstrom)
Al           -0.0000179934        0.0000027600       -0.0000081218
Al            0.0000028414        2.0207395638        2.0207546683
Al            2.0207541299       -0.0000101145        2.0207311104
Al            2.0207397068        2.0207459288        0.0000036628



     Writing output data file ./pwscf.save/
     NEW-OLD atomic charge density approx. for the potential
     extrapolated charge   12.00002, renormalised to   12.00000

     total cpu time spent up to now is       77.3 secs

     Self-consistent Calculation

     iteration #  1     ecut=    48.95 Ry     beta= 0.40
     Davidson diagonalization with overlap
     ethr =  1.00E-06,  avg # of iterations =  1.6

     Threshold (ethr) on eigenvalues was too large:
     Diagonalizing with lowered threshold

     Davidson diagonalization with overlap
     ethr =  9.46E-11,  avg # of iterations =  1.5

     total cpu time spent up to now is       86.6 secs

     End of self-consistent calculation

     Number of k-points >= 100: set verbosity='high' to print the bands.

     the Fermi energy is     7.9355 ev

!    total energy              =    -158.01049804 Ry
     Harris-Foulkes estimate   =    -158.01051094 Ry
     estimated scf accuracy    <       0.00000001 Ry

     convergence has been achieved in   1 iterations

     Forces acting on atoms (cartesian axes, Ry/au):

     atom    1 type  1   force =     0.00000237   -0.00000516   -0.00000003
     atom    2 type  1   force =    -0.00000100    0.00000461   -0.00000079
     atom    3 type  1   force =    -0.00000201   -0.00000277    0.00000280
     atom    4 type  1   force =     0.00000064    0.00000331   -0.00000199

     Total force =     0.000009     Total SCF correction =     0.000059
     SCF correction compared to forces is large: reduce conv_thr to get better values


     Computing stress (Cartesian axis) and pressure

          total   stress  (Ry/bohr**3)                   (kbar)     P=        0.10
   0.00000067  -0.00000000  -0.00000000            0.10       -0.00       -0.00
  -0.00000000   0.00000067  -0.00000000           -0.00        0.10       -0.00
  -0.00000000  -0.00000000   0.00000068           -0.00       -0.00        0.10


     Entering Dynamics;  it =     3   time =  0.00194 pico-seconds

  new lattice vectors (alat unit) :
   1.000001306   0.000000003   0.000000060
   0.000000003   1.000001186   0.000000044
   0.000000060   0.000000044   1.000001920
  new unit-cell volume =    445.4701 (a.u.)^3
  new positions in cryst coord
Al      -0.000006623   0.000001059  -0.000002988
Al       0.000001140   0.500000129   0.500005285
Al       0.500005352  -0.000003708   0.499996423
Al       0.500000131   0.500002520   0.000001280
  new positions in cart coord (alat unit)
Al      -0.000006623   0.000001059  -0.000002988
Al       0.000001172   0.500000744   0.500006267
Al       0.500006035  -0.000003685   0.499997413
Al       0.500000786   0.500003115   0.000001332

     Ekin =     0.00000003 Ry    T =    0.0 K  Etot =  -158.01049801
     new unit-cell volume =    445.47007 a.u.^3 (    66.01185 Ang^3 )
     density =      2.71490 g/cm^3

CELL_PARAMETERS (angstrom)
   4.041481265   0.000000014   0.000000241
   0.000000014   4.041480780   0.000000178
   0.000000241   0.000000178   4.041483747

ATOMIC_POSITIONS (angstrom)
Al           -0.0000267673        0.0000042808       -0.0000120770
Al            0.0000047352        2.0207409998        2.0207633231
Al            2.0207623832       -0.0000148911        2.0207275377
Al            2.0207411695        2.0207505829        0.0000053820



     Writing output data file ./pwscf.save/
     NEW-OLD atomic charge density approx. for the potential
     extrapolated charge   12.00003, renormalised to   12.00000

     total cpu time spent up to now is       96.7 secs

     Self-consistent Calculation

     iteration #  1     ecut=    48.95 Ry     beta= 0.40
     Davidson diagonalization with overlap
     ethr =  1.00E-06,  avg # of iterations =  1.4

     Threshold (ethr) on eigenvalues was too large:
     Diagonalizing with lowered threshold

     Davidson diagonalization with overlap
     ethr =  1.35E-10,  avg # of iterations =  1.3

     total cpu time spent up to now is      105.8 secs

     End of self-consistent calculation

     Number of k-points >= 100: set verbosity='high' to print the bands.

     the Fermi energy is     7.9355 ev

!    total energy              =    -158.01049804 Ry
     Harris-Foulkes estimate   =    -158.01051905 Ry
     estimated scf accuracy    <       0.00000002 Ry

     convergence has been achieved in   1 iterations

     Forces acting on atoms (cartesian axes, Ry/au):

     atom    1 type  1   force =     0.00001080    0.00000706    0.00000544
     atom    2 type  1   force =     0.00000532   -0.00000810   -0.00000728
     atom    3 type  1   force =    -0.00000993    0.00001073   -0.00000049
     atom    4 type  1   force =    -0.00000619   -0.00000969    0.00000234

     Total force =     0.000026     Total SCF correction =     0.000069
     SCF correction compared to forces is large: reduce conv_thr to get better values


     Computing stress (Cartesian axis) and pressure

          total   stress  (Ry/bohr**3)                   (kbar)     P=        0.10
   0.00000066   0.00000000  -0.00000000            0.10        0.00       -0.00
   0.00000000   0.00000066   0.00000000            0.00        0.10        0.00
  -0.00000000   0.00000000   0.00000067           -0.00        0.00        0.10


     Entering Dynamics;  it =     4   time =  0.00290 pico-seconds

  new lattice vectors (alat unit) :
   1.000002288   0.000000002   0.000000052
   0.000000002   1.000002166   0.000000037
   0.000000052   0.000000037   1.000002911
  new unit-cell volume =    445.4714 (a.u.)^3
  new positions in cryst coord
Al      -0.000008771   0.000001451  -0.000003955
Al       0.000001625   0.500000115   0.500007055
Al       0.500007021  -0.000004863   0.499995182
Al       0.500000125   0.500003297   0.000001718
  new positions in cart coord (alat unit)
Al      -0.000008771   0.000001451  -0.000003955
Al       0.000001652   0.500001217   0.500008529
Al       0.500008191  -0.000004843   0.499996664
Al       0.500001270   0.500004381   0.000001762

     Ekin =     0.00000003 Ry    T =    0.0 K  Etot =  -158.01049801
     new unit-cell volume =    445.47139 a.u.^3 (    66.01205 Ang^3 )
     density =      2.71489 g/cm^3

CELL_PARAMETERS (angstrom)
   4.041485237   0.000000007   0.000000209
   0.000000007   4.041484745   0.000000151
   0.000000209   0.000000151   4.041487753

ATOMIC_POSITIONS (angstrom)
Al           -0.0000354483        0.0000058623       -0.0000159853
Al            0.0000066751        2.0207429136        2.0207724662
Al            2.0207710991       -0.0000195738        2.0207245106
Al            2.0207431274        2.0207557006        0.0000071221



     Writing output data file ./pwscf.save/
     NEW-OLD atomic charge density approx. for the potential
     extrapolated charge   12.00004, renormalised to   12.00000

     total cpu time spent up to now is      115.9 secs

     Self-consistent Calculation

     iteration #  1     ecut=    48.95 Ry     beta= 0.40
     Davidson diagonalization with overlap
     ethr =  1.00E-06,  avg # of iterations =  1.5

     Threshold (ethr) on eigenvalues was too large:
     Diagonalizing with lowered threshold

     Davidson diagonalization with overlap
     ethr =  2.02E-10,  avg # of iterations =  1.3

     total cpu time spent up to now is      125.1 secs

     End of self-consistent calculation

     Number of k-points >= 100: set verbosity='high' to print the bands.

     the Fermi energy is     7.9355 ev

!    total energy              =    -158.01049804 Ry
     Harris-Foulkes estimate   =    -158.01052703 Ry
     estimated scf accuracy    <       0.00000003 Ry

     convergence has been achieved in   1 iterations

     Forces acting on atoms (cartesian axes, Ry/au):

     atom    1 type  1   force =     0.00000654   -0.00000711    0.00000137
     atom    2 type  1   force =    -0.00000076    0.00000605   -0.00000337
     atom    3 type  1   force =    -0.00000538   -0.00000262    0.00000490
     atom    4 type  1   force =    -0.00000040    0.00000368   -0.00000290

     Total force =     0.000015     Total SCF correction =     0.000084
     SCF correction compared to forces is large: reduce conv_thr to get better values


     Computing stress (Cartesian axis) and pressure

          total   stress  (Ry/bohr**3)                   (kbar)     P=        0.10
   0.00000065   0.00000000   0.00000000            0.09        0.00        0.00
   0.00000000   0.00000065  -0.00000000            0.00        0.09       -0.00
   0.00000000  -0.00000000   0.00000065            0.00       -0.00        0.10


     Entering Dynamics;  it =     5   time =  0.00387 pico-seconds

  new lattice vectors (alat unit) :
   1.000003535   0.000000000   0.000000044
   0.000000000   1.000003411   0.000000030
   0.000000044   0.000000030   1.000004167
  new unit-cell volume =    445.4731 (a.u.)^3
  new positions in cryst coord
Al      -0.000010905   0.000001827  -0.000004919
Al       0.000002108   0.500000115   0.500008818
Al       0.500008679  -0.000006023   0.499993952
Al       0.500000118   0.500004082   0.000002149
  new positions in cart coord (alat unit)
Al      -0.000010905   0.000001827  -0.000004919
Al       0.000002130   0.500001835   0.500010916
Al       0.500010468  -0.000006008   0.499996058
Al       0.500001886   0.500005787   0.000002186

     Ekin =     0.00000003 Ry    T =    0.0 K  Etot =  -158.01049801
     new unit-cell volume =    445.47306 a.u.^3 (    66.01230 Ang^3 )
     density =      2.71488 g/cm^3

CELL_PARAMETERS (angstrom)
   4.041490275   0.000000000   0.000000178
   0.000000000   4.041489775   0.000000120
   0.000000178   0.000000120   4.041492830

ATOMIC_POSITIONS (angstrom)
Al           -0.0000440731        0.0000073827       -0.0000198819
Al            0.0000086092        2.0207454102        2.0207821130
Al            2.0207803022       -0.0000242813        2.0207220612
Al            2.0207456150        2.0207613830        0.0000088356



     Writing output data file ./pwscf.save/
     NEW-OLD atomic charge density approx. for the potential
     extrapolated charge   12.00004, renormalised to   12.00000

     total cpu time spent up to now is      135.1 secs

     Self-consistent Calculation

     iteration #  1     ecut=    48.95 Ry     beta= 0.40
     Davidson diagonalization with overlap
     ethr =  1.00E-06,  avg # of iterations =  1.4

     Threshold (ethr) on eigenvalues was too large:
     Diagonalizing with lowered threshold

     Davidson diagonalization with overlap
     ethr =  2.93E-10,  avg # of iterations =  1.2

     total cpu time spent up to now is      144.3 secs

     End of self-consistent calculation

     Number of k-points >= 100: set verbosity='high' to print the bands.

     the Fermi energy is     7.9354 ev

!    total energy              =    -158.01049804 Ry
     Harris-Foulkes estimate   =    -158.01053481 Ry
     estimated scf accuracy    <       0.00000004 Ry

     convergence has been achieved in   1 iterations

     Forces acting on atoms (cartesian axes, Ry/au):

     atom    1 type  1   force =     0.00001645    0.00001026    0.00000823
     atom    2 type  1   force =     0.00000790   -0.00001195   -0.00001107
     atom    3 type  1   force =    -0.00001515    0.00001605   -0.00000049
     atom    4 type  1   force =    -0.00000920   -0.00001436    0.00000333

     Total force =     0.000040     Total SCF correction =     0.000099
     SCF correction compared to forces is large: reduce conv_thr to get better values


     Computing stress (Cartesian axis) and pressure

          total   stress  (Ry/bohr**3)                   (kbar)     P=        0.09
   0.00000063   0.00000000   0.00000000            0.09        0.00        0.00
   0.00000000   0.00000063   0.00000000            0.00        0.09        0.00
   0.00000000   0.00000000   0.00000063            0.00        0.00        0.09


     Entering Dynamics;  it =     6   time =  0.00484 pico-seconds

  new lattice vectors (alat unit) :
   1.000005038  -0.000000001   0.000000037
  -0.000000001   1.000004912   0.000000023
   0.000000037   0.000000023   1.000005681
  new unit-cell volume =    445.4751 (a.u.)^3
  new positions in cryst coord
Al      -0.000013004   0.000002225  -0.000005866
Al       0.000002608   0.500000088   0.500010557
Al       0.500010304  -0.000007149   0.499992721
Al       0.500000092   0.500004835   0.000002588
  new positions in cart coord (alat unit)
Al      -0.000013004   0.000002225  -0.000005866
Al       0.000002626   0.500002556   0.500013409
Al       0.500012842  -0.000007138   0.499995579
Al       0.500002610   0.500007291   0.000002618

     Ekin =     0.00000003 Ry    T =    0.0 K  Etot =  -158.01049801
     new unit-cell volume =    445.47507 a.u.^3 (    66.01259 Ang^3 )
     density =      2.71487 g/cm^3

CELL_PARAMETERS (angstrom)
   4.041496351  -0.000000005   0.000000148
  -0.000000005   4.041495839   0.000000091
   0.000000148   0.000000091   4.041498948

ATOMIC_POSITIONS (angstrom)
Al           -0.0000525562        0.0000089914       -0.0000237076
Al            0.0000106119        2.0207483226        2.0207921867
Al            2.0207898943       -0.0000288486        2.0207201284
Al            2.0207485430        2.0207674593        0.0000105797



     Writing output data file ./pwscf.save/
     NEW-OLD atomic charge density approx. for the potential
     extrapolated charge   12.00005, renormalised to   12.00000

     total cpu time spent up to now is      154.3 secs

     Self-consistent Calculation

     iteration #  1     ecut=    48.95 Ry     beta= 0.40
     Davidson diagonalization with overlap
     c_bands:  2 eigenvalues not converged
     ethr =  1.00E-06,  avg # of iterations =  1.5

     Threshold (ethr) on eigenvalues was too large:
     Diagonalizing with lowered threshold

     Davidson diagonalization with overlap
     ethr =  4.36E-10,  avg # of iterations =  1.2

     total cpu time spent up to now is      163.5 secs

     End of self-consistent calculation

     Number of k-points >= 100: set verbosity='high' to print the bands.

     the Fermi energy is     7.9354 ev

!    total energy              =    -158.01049804 Ry
     Harris-Foulkes estimate   =    -158.01054237 Ry
     estimated scf accuracy    <       0.00000005 Ry

     convergence has been achieved in   1 iterations

     Forces acting on atoms (cartesian axes, Ry/au):

     atom    1 type  1   force =     0.00000919   -0.00001040    0.00000197
     atom    2 type  1   force =    -0.00000097    0.00000894   -0.00000488
     atom    3 type  1   force =    -0.00000759   -0.00000422    0.00000689
     atom    4 type  1   force =    -0.00000063    0.00000569   -0.00000398

     Total force =     0.000022     Total SCF correction =     0.000121
     SCF correction compared to forces is large: reduce conv_thr to get better values


     Computing stress (Cartesian axis) and pressure

          total   stress  (Ry/bohr**3)                   (kbar)     P=        0.09
   0.00000060   0.00000000   0.00000000            0.09        0.00        0.00
   0.00000000   0.00000060  -0.00000000            0.00        0.09       -0.00
   0.00000000  -0.00000000   0.00000060            0.00       -0.00        0.09


     Entering Dynamics;  it =     7   time =  0.00581 pico-seconds

  new lattice vectors (alat unit) :
   1.000006787  -0.000000003   0.000000029
  -0.000000003   1.000006657   0.000000014
   0.000000029   0.000000014   1.000007441
  new unit-cell volume =    445.4774 (a.u.)^3
  new positions in cryst coord
Al      -0.000015084   0.000002601  -0.000006808
Al       0.000003106   0.500000081   0.500012286
Al       0.500011914  -0.000008284   0.499991504
Al       0.500000064   0.500005602   0.000003018
  new positions in cart coord (alat unit)
Al      -0.000015084   0.000002601  -0.000006808
Al       0.000003119   0.500003417   0.500016013
Al       0.500015322  -0.000008278   0.499995239
Al       0.500003456   0.500008929   0.000003040

     Ekin =     0.00000003 Ry    T =    0.0 K  Etot =  -158.01049801
     new unit-cell volume =    445.47741 a.u.^3 (    66.01294 Ang^3 )
     density =      2.71486 g/cm^3

CELL_PARAMETERS (angstrom)
   4.041503417  -0.000000011   0.000000119
  -0.000000011   4.041502894   0.000000057
   0.000000119   0.000000057   4.041506060

ATOMIC_POSITIONS (angstrom)
Al           -0.0000609602        0.0000105105       -0.0000275163
Al            0.0000126072        2.0207518042        2.0208027125
Al            2.0207999168       -0.0000334553        2.0207187527
Al            2.0207519607        2.0207740800        0.0000122871



     Writing output data file ./pwscf.save/
     NEW-OLD atomic charge density approx. for the potential
     extrapolated charge   12.00006, renormalised to   12.00000

     total cpu time spent up to now is      173.5 secs

     Self-consistent Calculation

     iteration #  1     ecut=    48.95 Ry     beta= 0.40
     Davidson diagonalization with overlap
     ethr =  1.00E-06,  avg # of iterations =  1.5

     Threshold (ethr) on eigenvalues was too large:
     Diagonalizing with lowered threshold

     Davidson diagonalization with overlap
     ethr =  6.43E-10,  avg # of iterations =  1.1

     total cpu time spent up to now is      182.6 secs

     End of self-consistent calculation

     Number of k-points >= 100: set verbosity='high' to print the bands.

     the Fermi energy is     7.9353 ev

!    total energy              =    -158.01049803 Ry
     Harris-Foulkes estimate   =    -158.01054960 Ry
     estimated scf accuracy    <       0.00000008 Ry

     convergence has been achieved in   1 iterations

     Forces acting on atoms (cartesian axes, Ry/au):

     atom    1 type  1   force =     0.00002225    0.00001524    0.00001137
     atom    2 type  1   force =     0.00001103   -0.00001740   -0.00001507
     atom    3 type  1   force =    -0.00002055    0.00002269   -0.00000117
     atom    4 type  1   force =    -0.00001273   -0.00002053    0.00000487

     Total force =     0.000055     Total SCF correction =     0.000144
     SCF correction compared to forces is large: reduce conv_thr to get better values


     Computing stress (Cartesian axis) and pressure

          total   stress  (Ry/bohr**3)                   (kbar)     P=        0.09
   0.00000058   0.00000000   0.00000000            0.09        0.00        0.00
   0.00000000   0.00000058   0.00000000            0.00        0.08        0.00
   0.00000000   0.00000000   0.00000058            0.00        0.00        0.09


     Entering Dynamics;  it =     8   time =  0.00678 pico-seconds

  new lattice vectors (alat unit) :
   1.000008771  -0.000000004   0.000000023
  -0.000000004   1.000008638   0.000000007
   0.000000023   0.000000007   1.000009438
  new unit-cell volume =    445.4801 (a.u.)^3
  new positions in cryst coord
Al      -0.000017116   0.000003009  -0.000007727
Al       0.000003628   0.500000037   0.500013983
Al       0.500013479  -0.000009370   0.499990285
Al       0.500000009   0.500006324   0.000003459
  new positions in cart coord (alat unit)
Al      -0.000017116   0.000003009  -0.000007727
Al       0.000003637   0.500004360   0.500018705
Al       0.500017876  -0.000009369   0.499995015
Al       0.500004393   0.500010641   0.000003474

     Ekin =     0.00000003 Ry    T =    0.0 K  Etot =  -158.01049800
     new unit-cell volume =    445.48007 a.u.^3 (    66.01333 Ang^3 )
     density =      2.71484 g/cm^3

CELL_PARAMETERS (angstrom)
   4.041511438  -0.000000016   0.000000092
  -0.000000016   4.041510899   0.000000028
   0.000000092   0.000000028   4.041514131

ATOMIC_POSITIONS (angstrom)
Al           -0.0000691728        0.0000121609       -0.0000312272
Al            0.0000146986        2.0207556136        2.0208135902
Al            2.0208102410       -0.0000378637        2.0207178470
Al            2.0207557469        2.0207809994        0.0000140398



     Writing output data file ./pwscf.save/
     NEW-OLD atomic charge density approx. for the potential
     extrapolated charge   12.00007, renormalised to   12.00000

     total cpu time spent up to now is      192.7 secs

     Self-consistent Calculation

     iteration #  1     ecut=    48.95 Ry     beta= 0.40
     Davidson diagonalization with overlap
     ethr =  1.00E-06,  avg # of iterations =  1.5

     Threshold (ethr) on eigenvalues was too large:
     Diagonalizing with lowered threshold

     Davidson diagonalization with overlap
     ethr =  9.65E-10,  avg # of iterations =  1.2

     total cpu time spent up to now is      201.8 secs

     End of self-consistent calculation

     Number of k-points >= 100: set verbosity='high' to print the bands.

     the Fermi energy is     7.9353 ev

!    total energy              =    -158.01049801 Ry
     Harris-Foulkes estimate   =    -158.01055656 Ry
     estimated scf accuracy    <       0.00000012 Ry

     convergence has been achieved in   1 iterations

     Forces acting on atoms (cartesian axes, Ry/au):

     atom    1 type  1   force =     0.00001065   -0.00001570    0.00000177
     atom    2 type  1   force =    -0.00000216    0.00001392   -0.00000560
     atom    3 type  1   force =    -0.00000860   -0.00000794    0.00000945
     atom    4 type  1   force =     0.00000011    0.00000972   -0.00000563

     Total force =     0.000031     Total SCF correction =     0.000175
     SCF correction compared to forces is large: reduce conv_thr to get better values


     Computing stress (Cartesian axis) and pressure

          total   stress  (Ry/bohr**3)                   (kbar)     P=        0.08
   0.00000054  -0.00000000   0.00000000            0.08       -0.00        0.00
  -0.00000000   0.00000054  -0.00000000           -0.00        0.08       -0.00
   0.00000000  -0.00000000   0.00000054            0.00       -0.00        0.08


     Entering Dynamics;  it =     9   time =  0.00774 pico-seconds

  new lattice vectors (alat unit) :
   1.000010975  -0.000000005   0.000000016
  -0.000000005   1.000010838  -0.000000002
   0.000000016  -0.000000002   1.000011655
  new unit-cell volume =    445.4830 (a.u.)^3
  new positions in cryst coord
Al      -0.000019125   0.000003384  -0.000008641
Al       0.000004144   0.500000023   0.500015667
Al       0.500015026  -0.000010474   0.499989086
Al       0.499999954   0.500007067   0.000003888
  new positions in cart coord (alat unit)
Al      -0.000019125   0.000003384  -0.000008641
Al       0.000004150   0.500005441   0.500021494
Al       0.500020522  -0.000010477   0.499994921
Al       0.500005439   0.500012484   0.000003895

     Ekin =     0.00000003 Ry    T =    0.0 K  Etot =  -158.01049798
     new unit-cell volume =    445.48302 a.u.^3 (    66.01377 Ang^3 )
     density =      2.71482 g/cm^3

CELL_PARAMETERS (angstrom)
   4.041520346  -0.000000021   0.000000066
  -0.000000021   4.041519792  -0.000000009
   0.000000066  -0.000000009   4.041523092

ATOMIC_POSITIONS (angstrom)
Al           -0.0000772937        0.0000136762       -0.0000349228
Al            0.0000167720        2.0207599832        2.0208248617
Al            2.0208209353       -0.0000423442        2.0207174687
Al            2.0207599776        2.0207884464        0.0000157410



     Writing output data file ./pwscf.save/
     NEW-OLD atomic charge density approx. for the potential
     extrapolated charge   12.00008, renormalised to   12.00000

     total cpu time spent up to now is      211.8 secs

     Self-consistent Calculation

     iteration #  1     ecut=    48.95 Ry     beta= 0.40
     Davidson diagonalization with overlap
     ethr =  1.00E-06,  avg # of iterations =  1.5

     Threshold (ethr) on eigenvalues was too large:
     Diagonalizing with lowered threshold

     Davidson diagonalization with overlap
     ethr =  1.45E-09,  avg # of iterations =  1.1

     total cpu time spent up to now is      221.0 secs

     End of self-consistent calculation

     Number of k-points >= 100: set verbosity='high' to print the bands.

     the Fermi energy is     7.9352 ev

!    total energy              =    -158.01049799 Ry
     Harris-Foulkes estimate   =    -158.01056305 Ry
     estimated scf accuracy    <       0.00000018 Ry

     convergence has been achieved in   1 iterations

     Forces acting on atoms (cartesian axes, Ry/au):

     atom    1 type  1   force =     0.00002880    0.00002282    0.00001519
     atom    2 type  1   force =     0.00001495   -0.00002531   -0.00001976
     atom    3 type  1   force =    -0.00002669    0.00003176   -0.00000259
     atom    4 type  1   force =    -0.00001706   -0.00002927    0.00000717

     Total force =     0.000076     Total SCF correction =     0.000210
     SCF correction compared to forces is large: reduce conv_thr to get better values


     Computing stress (Cartesian axis) and pressure

          total   stress  (Ry/bohr**3)                   (kbar)     P=        0.08
   0.00000051   0.00000000   0.00000000            0.08        0.00        0.00
   0.00000000   0.00000051   0.00000000            0.00        0.08        0.00
   0.00000000   0.00000000   0.00000052            0.00        0.00        0.08


     Entering Dynamics;  it =    10   time =  0.00871 pico-seconds

  new lattice vectors (alat unit) :
   1.000013390  -0.000000006   0.000000010
  -0.000000006   1.000013248  -0.000000010
   0.000000010  -0.000000010   1.000014084
  new unit-cell volume =    445.4862 (a.u.)^3
  new positions in cryst coord
Al      -0.000021073   0.000003807  -0.000009523
Al       0.000004693   0.499999954   0.500017310
Al       0.500016517  -0.000011509   0.499987881
Al       0.499999863   0.500007748   0.000004332
  new positions in cart coord (alat unit)
Al      -0.000021073   0.000003807  -0.000009523
Al       0.000004695   0.500006573   0.500024347
Al       0.500023217  -0.000011518   0.499994928
Al       0.500006555   0.500014368   0.000004332

     Ekin =     0.00000003 Ry    T =    0.0 K  Etot =  -158.01049796
     new unit-cell volume =    445.48625 a.u.^3 (    66.01425 Ang^3 )
     density =      2.71480 g/cm^3

CELL_PARAMETERS (angstrom)
   4.041530104  -0.000000025   0.000000042
  -0.000000025   4.041529529  -0.000000040
   0.000000042  -0.000000040   4.041532908

ATOMIC_POSITIONS (angstrom)
Al           -0.0000851668        0.0000153879       -0.0000384877
Al            0.0000189754        2.0207645598        2.0208363929
Al            2.0208318261       -0.0000465484        2.0207174964
Al            2.0207644864        2.0207960637        0.0000175079



     Writing output data file ./pwscf.save/
     NEW-OLD atomic charge density approx. for the potential
     extrapolated charge   12.00009, renormalised to   12.00000

     total cpu time spent up to now is      231.0 secs

     Self-consistent Calculation

     iteration #  1     ecut=    48.95 Ry     beta= 0.40
     Davidson diagonalization with overlap
     ethr =  1.00E-06,  avg # of iterations =  1.5

     Threshold (ethr) on eigenvalues was too large:
     Diagonalizing with lowered threshold

     Davidson diagonalization with overlap
     ethr =  2.21E-09,  avg # of iterations =  1.1

     total cpu time spent up to now is      240.2 secs

     End of self-consistent calculation

     Number of k-points >= 100: set verbosity='high' to print the bands.

     the Fermi energy is     7.9351 ev

!    total energy              =    -158.01049795 Ry
     Harris-Foulkes estimate   =    -158.01056927 Ry
     estimated scf accuracy    <       0.00000027 Ry

     convergence has been achieved in   1 iterations

     Forces acting on atoms (cartesian axes, Ry/au):

     atom    1 type  1   force =     0.00001075   -0.00002415    0.00000042
     atom    2 type  1   force =    -0.00000482    0.00002218   -0.00000523
     atom    3 type  1   force =    -0.00000813   -0.00001492    0.00001312
     atom    4 type  1   force =     0.00000220    0.00001689   -0.00000831

     Total force =     0.000045     Total SCF correction =     0.000257
     SCF correction compared to forces is large: reduce conv_thr to get better values


     Computing stress (Cartesian axis) and pressure

          total   stress  (Ry/bohr**3)                   (kbar)     P=        0.07
   0.00000046   0.00000000   0.00000000            0.07        0.00        0.00
   0.00000000   0.00000046  -0.00000000            0.00        0.07       -0.00
   0.00000000  -0.00000000   0.00000046            0.00       -0.00        0.07


     Entering Dynamics;  it =    11   time =  0.00968 pico-seconds

  new lattice vectors (alat unit) :
   1.000015992  -0.000000007   0.000000005
  -0.000000007   1.000015845  -0.000000019
   0.000000005  -0.000000019   1.000016701
  new unit-cell volume =    445.4897 (a.u.)^3
  new positions in cryst coord
Al      -0.000022998   0.000004180  -0.000010404
Al       0.000005231   0.499999933   0.500018942
Al       0.500017990  -0.000012577   0.499986705
Al       0.499999777   0.500008464   0.000004758
  new positions in cart coord (alat unit)
Al      -0.000022998   0.000004180  -0.000010404
Al       0.000005230   0.500007846   0.500027283
Al       0.500025989  -0.000012591   0.499995057
Al       0.500007769   0.500016383   0.000004751

     Ekin =     0.00000003 Ry    T =    0.0 K  Etot =  -158.01049792
     new unit-cell volume =    445.48973 a.u.^3 (    66.01477 Ang^3 )
     density =      2.71478 g/cm^3

CELL_PARAMETERS (angstrom)
   4.041540620  -0.000000030   0.000000020
  -0.000000030   4.041540024  -0.000000078
   0.000000020  -0.000000078   4.041543486

ATOMIC_POSITIONS (angstrom)
Al           -0.0000929473        0.0000168918       -0.0000420490
Al            0.0000211382        2.0207697031        2.0208482570
Al            2.0208430265       -0.0000508843        2.0207180190
Al            2.0207693934        2.0208042058        0.0000192004



     Writing output data file ./pwscf.save/
     NEW-OLD atomic charge density approx. for the potential
     extrapolated charge   12.00009, renormalised to   12.00000

     total cpu time spent up to now is      250.2 secs

     Self-consistent Calculation

     iteration #  1     ecut=    48.95 Ry     beta= 0.40
     Davidson diagonalization with overlap
     ethr =  1.00E-06,  avg # of iterations =  1.6

     Threshold (ethr) on eigenvalues was too large:
     Diagonalizing with lowered threshold

     Davidson diagonalization with overlap
     ethr =  3.37E-09,  avg # of iterations =  1.1

     total cpu time spent up to now is      259.4 secs

     End of self-consistent calculation

     Number of k-points >= 100: set verbosity='high' to print the bands.

     the Fermi energy is     7.9350 ev

!    total energy              =    -158.01049790 Ry
     Harris-Foulkes estimate   =    -158.01057485 Ry
     estimated scf accuracy    <       0.00000041 Ry

     convergence has been achieved in   1 iterations

     Forces acting on atoms (cartesian axes, Ry/au):

     atom    1 type  1   force =     0.00003684    0.00003441    0.00002013
     atom    2 type  1   force =     0.00002017   -0.00003711   -0.00002553
     atom    3 type  1   force =    -0.00003419    0.00004465   -0.00000521
     atom    4 type  1   force =    -0.00002281   -0.00004195    0.00001061

     Total force =     0.000105     Total SCF correction =     0.000312
     SCF correction compared to forces is large: reduce conv_thr to get better values


     Computing stress (Cartesian axis) and pressure

          total   stress  (Ry/bohr**3)                   (kbar)     P=        0.06
   0.00000044   0.00000000   0.00000000            0.06        0.00        0.00
   0.00000000   0.00000044   0.00000000            0.00        0.06        0.00
   0.00000000   0.00000000   0.00000044            0.00        0.00        0.07


     Entering Dynamics;  it =    12   time =  0.01065 pico-seconds

  new lattice vectors (alat unit) :
   1.000018774  -0.000000008  -0.000000000
  -0.000000008   1.000018620  -0.000000027
  -0.000000000  -0.000000027   1.000019500
  new unit-cell volume =    445.4935 (a.u.)^3
  new positions in cryst coord
Al      -0.000024845   0.000004625  -0.000011242
Al       0.000005813   0.499999833   0.500020519
Al       0.500019390  -0.000013549   0.499985517
Al       0.499999642   0.500009092   0.000005207
  new positions in cart coord (alat unit)
Al      -0.000024845   0.000004625  -0.000011243
Al       0.000005809   0.500009129   0.500030255
Al       0.500028777  -0.000013568   0.499995266
Al       0.500009024   0.500018397   0.000005193

     Ekin =     0.00000003 Ry    T =    0.0 K  Etot =  -158.01049786
     new unit-cell volume =    445.49345 a.u.^3 (    66.01532 Ang^3 )
     density =      2.71476 g/cm^3

CELL_PARAMETERS (angstrom)
   4.041551862  -0.000000033  -0.000000002
  -0.000000033   4.041551240  -0.000000111
  -0.000000002  -0.000000111   4.041554796

ATOMIC_POSITIONS (angstrom)
Al           -0.0001004108        0.0000186918       -0.0000454370
Al            0.0000234750        2.0207748897        2.0208602701
Al            2.0208542955       -0.0000548331        2.0207188629
Al            2.0207744666        2.0208123470        0.0000209873



     Writing output data file ./pwscf.save/
     NEW-OLD atomic charge density approx. for the potential
     extrapolated charge   12.00010, renormalised to   12.00000

     total cpu time spent up to now is      269.4 secs

     Self-consistent Calculation

     iteration #  1     ecut=    48.95 Ry     beta= 0.40
     Davidson diagonalization with overlap
     ethr =  1.00E-06,  avg # of iterations =  1.6

     Threshold (ethr) on eigenvalues was too large:
     Diagonalizing with lowered threshold

     Davidson diagonalization with overlap
     ethr =  5.22E-09,  avg # of iterations =  1.1

     total cpu time spent up to now is      278.6 secs

     End of self-consistent calculation

     Number of k-points >= 100: set verbosity='high' to print the bands.

     the Fermi energy is     7.9350 ev

!    total energy              =    -158.01049780 Ry
     Harris-Foulkes estimate   =    -158.01058022 Ry
     estimated scf accuracy    <       0.00000064 Ry

     convergence has been achieved in   1 iterations

     Forces acting on atoms (cartesian axes, Ry/au):

     atom    1 type  1   force =     0.00000897   -0.00003770   -0.00000251
     atom    2 type  1   force =    -0.00000963    0.00003564   -0.00000322
     atom    3 type  1   force =    -0.00000552   -0.00002701    0.00001826
     atom    4 type  1   force =     0.00000619    0.00002907   -0.00001253

     Total force =     0.000071     Total SCF correction =     0.000383
     SCF correction compared to forces is large: reduce conv_thr to get better values


     Computing stress (Cartesian axis) and pressure

          total   stress  (Ry/bohr**3)                   (kbar)     P=        0.05
   0.00000037   0.00000000   0.00000000            0.05        0.00        0.00
   0.00000000   0.00000037  -0.00000000            0.00        0.05       -0.00
   0.00000000  -0.00000000   0.00000037            0.00       -0.00        0.05


     Entering Dynamics;  it =    13   time =  0.01162 pico-seconds

  new lattice vectors (alat unit) :
   1.000021705  -0.000000009  -0.000000006
  -0.000000009   1.000021545  -0.000000037
  -0.000000006  -0.000000037   1.000022450
  new unit-cell volume =    445.4974 (a.u.)^3
  new positions in cryst coord
Al      -0.000026672   0.000004990  -0.000012086
Al       0.000006374   0.499999809   0.500022089
Al       0.500020778  -0.000014579   0.499984368
Al       0.499999520   0.500009781   0.000005629
  new positions in cart coord (alat unit)
Al      -0.000026673   0.000004990  -0.000012086
Al       0.000006367   0.500010563   0.500033296
Al       0.500031629  -0.000014603   0.499995590
Al       0.500010368   0.500020549   0.000005608

     Ekin =     0.00000003 Ry    T =    0.0 K  Etot =  -158.01049776
     new unit-cell volume =    445.49737 a.u.^3 (    66.01590 Ang^3 )
     density =      2.71473 g/cm^3

CELL_PARAMETERS (angstrom)
   4.041563710  -0.000000036  -0.000000023
  -0.000000036   4.041563062  -0.000000150
  -0.000000023  -0.000000150   4.041566720

ATOMIC_POSITIONS (angstrom)
Al           -0.0001077970        0.0000201672       -0.0000488466
Al            0.0000257303        2.0207806831        2.0208725589
Al            2.0208658210       -0.0000590169        2.0207201715
Al            2.0207798977        2.0208210429        0.0000226633



     Writing output data file ./pwscf.save/
     NEW-OLD atomic charge density approx. for the potential
     extrapolated charge   12.00011, renormalised to   12.00000

     total cpu time spent up to now is      288.7 secs

     Self-consistent Calculation

     iteration #  1     ecut=    48.95 Ry     beta= 0.40
     Davidson diagonalization with overlap
     ethr =  1.00E-06,  avg # of iterations =  1.6

     Threshold (ethr) on eigenvalues was too large:
     Diagonalizing with lowered threshold

     Davidson diagonalization with overlap
     ethr =  8.14E-09,  avg # of iterations =  1.1

     total cpu time spent up to now is      297.9 secs

     End of self-consistent calculation

     Number of k-points >= 100: set verbosity='high' to print the bands.

     the Fermi energy is     7.9349 ev

!    total energy              =    -158.01049765 Ry
     Harris-Foulkes estimate   =    -158.01058478 Ry
     estimated scf accuracy    <       0.00000099 Ry

     convergence has been achieved in   1 iterations

     Forces acting on atoms (cartesian axes, Ry/au):

     atom    1 type  1   force =     0.00004713    0.00005197    0.00002674
     atom    2 type  1   force =     0.00002748   -0.00005465   -0.00003281
     atom    3 type  1   force =    -0.00004392    0.00006327   -0.00000968
     atom    4 type  1   force =    -0.00003069   -0.00006058    0.00001576

     Total force =     0.000146     Total SCF correction =     0.000468
     SCF correction compared to forces is large: reduce conv_thr to get better values


     Computing stress (Cartesian axis) and pressure

          total   stress  (Ry/bohr**3)                   (kbar)     P=        0.05
   0.00000035  -0.00000000  -0.00000000            0.05       -0.00       -0.00
  -0.00000000   0.00000035   0.00000000           -0.00        0.05        0.00
  -0.00000000   0.00000000   0.00000036           -0.00        0.00        0.05


     Entering Dynamics;  it =    14   time =  0.01258 pico-seconds

  new lattice vectors (alat unit) :
   1.000024781  -0.000000009  -0.000000011
  -0.000000009   1.000024614  -0.000000046
  -0.000000011  -0.000000046   1.000025547
  new unit-cell volume =    445.5015 (a.u.)^3
  new positions in cryst coord
Al      -0.000028399   0.000005466  -0.000012873
Al       0.000006993   0.499999668   0.500023589
Al       0.500022073  -0.000015475   0.499983199
Al       0.499999333   0.500010341   0.000006085
  new positions in cart coord (alat unit)
Al      -0.000028400   0.000005466  -0.000012873
Al       0.000006983   0.500011952   0.500036341
Al       0.500034459  -0.000015503   0.499995966
Al       0.500011719   0.500022643   0.000006056

     Ekin =     0.00000004 Ry    T =    0.0 K  Etot =  -158.01049761
     new unit-cell volume =    445.50149 a.u.^3 (    66.01651 Ang^3 )
     density =      2.71471 g/cm^3

CELL_PARAMETERS (angstrom)
   4.041576143  -0.000000038  -0.000000044
  -0.000000038   4.041575464  -0.000000185
  -0.000000044  -0.000000185   4.041579238

ATOMIC_POSITIONS (angstrom)
Al           -0.0001147777        0.0000220900       -0.0000520261
Al            0.0000282215        2.0207862982        2.0208848643
Al            2.0208772603       -0.0000626542        2.0207216931
Al            2.0207853563        2.0208295067        0.0000244769



     Writing output data file ./pwscf.save/
     NEW-OLD atomic charge density approx. for the potential
     extrapolated charge   12.00011, renormalised to   12.00000

     total cpu time spent up to now is      308.0 secs

     Self-consistent Calculation

     iteration #  1     ecut=    48.95 Ry     beta= 0.40
     Davidson diagonalization with overlap
     ethr =  1.00E-06,  avg # of iterations =  1.6

     Threshold (ethr) on eigenvalues was too large:
     Diagonalizing with lowered threshold

     Davidson diagonalization with overlap
     ethr =  1.28E-08,  avg # of iterations =  1.1

     total cpu time spent up to now is      317.4 secs

     total energy              =    -158.01049785 Ry
     Harris-Foulkes estimate   =    -158.01058925 Ry
     estimated scf accuracy    <       0.00000156 Ry

     iteration #  2     ecut=    48.95 Ry     beta= 0.40
     Davidson diagonalization with overlap
     ethr =  1.30E-08,  avg # of iterations =  1.4

     total cpu time spent up to now is      322.0 secs

     End of self-consistent calculation

     Number of k-points >= 100: set verbosity='high' to print the bands.

     the Fermi energy is     7.9348 ev

!    total energy              =    -158.01049805 Ry
     Harris-Foulkes estimate   =    -158.01049808 Ry
     estimated scf accuracy    <       0.00000003 Ry

     convergence has been achieved in   2 iterations

     Forces acting on atoms (cartesian axes, Ry/au):

     atom    1 type  1   force =     0.00002115   -0.00000679    0.00000596
     atom    2 type  1   force =     0.00000358    0.00000385   -0.00001158
     atom    3 type  1   force =    -0.00001793    0.00000343    0.00000853
     atom    4 type  1   force =    -0.00000680   -0.00000049   -0.00000291

     Total force =     0.000034     Total SCF correction =     0.000080
     SCF correction compared to forces is large: reduce conv_thr to get better values


     Computing stress (Cartesian axis) and pressure

          total   stress  (Ry/bohr**3)                   (kbar)     P=        0.05
   0.00000031   0.00000000  -0.00000000            0.05        0.00       -0.00
   0.00000000   0.00000031   0.00000000            0.00        0.05        0.00
  -0.00000000   0.00000000   0.00000032           -0.00        0.00        0.05


     Entering Dynamics;  it =    15   time =  0.01355 pico-seconds

  new lattice vectors (alat unit) :
   1.000027986  -0.000000009  -0.000000017
  -0.000000009   1.000027808  -0.000000054
  -0.000000017  -0.000000054   1.000028775
  new unit-cell volume =    445.5058 (a.u.)^3
  new positions in cryst coord
Al      -0.000030081   0.000005927  -0.000013647
Al       0.000007620   0.499999536   0.500025065
Al       0.500023330  -0.000016363   0.499982048
Al       0.499999131   0.500010900   0.000006534
  new positions in cart coord (alat unit)
Al      -0.000030082   0.000005927  -0.000013647
Al       0.000007607   0.500013412   0.500039426
Al       0.500037315  -0.000016395   0.499996426
Al       0.500013120   0.500024799   0.000006499

     Ekin =     0.00000004 Ry    T =    0.0 K  Etot =  -158.01049802
     new unit-cell volume =    445.50578 a.u.^3 (    66.01714 Ang^3 )
     density =      2.71468 g/cm^3

CELL_PARAMETERS (angstrom)
   4.041589093  -0.000000038  -0.000000069
  -0.000000038   4.041588373  -0.000000218
  -0.000000069  -0.000000218   4.041592283

ATOMIC_POSITIONS (angstrom)
Al           -0.0001215764        0.0000239543       -0.0000551542
Al            0.0000307432        2.0207922008        2.0208973354
Al            2.0208888026       -0.0000662594        2.0207235507
Al            2.0207910167        2.0208382209        0.0000262650



     Writing output data file ./pwscf.save/
     NEW-OLD atomic charge density approx. for the potential
     extrapolated charge   12.00012, renormalised to   12.00000

     total cpu time spent up to now is      332.2 secs

     Self-consistent Calculation

     iteration #  1     ecut=    48.95 Ry     beta= 0.40
     Davidson diagonalization with overlap
     ethr =  1.00E-06,  avg # of iterations =  1.4

     Threshold (ethr) on eigenvalues was too large:
     Diagonalizing with lowered threshold

     Davidson diagonalization with overlap
     ethr =  4.17E-10,  avg # of iterations =  2.3

     total cpu time spent up to now is      342.0 secs

     End of self-consistent calculation

     Number of k-points >= 100: set verbosity='high' to print the bands.

     the Fermi energy is     7.9347 ev

!    total energy              =    -158.01049806 Ry
     Harris-Foulkes estimate   =    -158.01059248 Ry
     estimated scf accuracy    <       0.00000007 Ry

     convergence has been achieved in   1 iterations

     Forces acting on atoms (cartesian axes, Ry/au):

     atom    1 type  1   force =     0.00003412    0.00001488    0.00001553
     atom    2 type  1   force =     0.00001334   -0.00001798   -0.00002185
     atom    3 type  1   force =    -0.00003036    0.00002722    0.00000193
     atom    4 type  1   force =    -0.00001711   -0.00002412    0.00000439

     Total force =     0.000072     Total SCF correction =     0.000117
     SCF correction compared to forces is large: reduce conv_thr to get better values


     Computing stress (Cartesian axis) and pressure

          total   stress  (Ry/bohr**3)                   (kbar)     P=        0.04
   0.00000024  -0.00000000   0.00000000            0.04       -0.00        0.00
  -0.00000000   0.00000024   0.00000000           -0.00        0.04        0.00
   0.00000000   0.00000000   0.00000024            0.00        0.00        0.04


     Entering Dynamics;  it =    16   time =  0.01452 pico-seconds

  new lattice vectors (alat unit) :
   1.000031289  -0.000000010  -0.000000023
  -0.000000010   1.000031099  -0.000000062
  -0.000000023  -0.000000062   1.000032103
  new unit-cell volume =    445.5102 (a.u.)^3
  new positions in cryst coord
Al      -0.000031691   0.000006420  -0.000014388
Al       0.000008275   0.499999365   0.500026494
Al       0.500024522  -0.000017193   0.499980900
Al       0.499998893   0.500011408   0.000006993
  new positions in cart coord (alat unit)
Al      -0.000031692   0.000006420  -0.000014388
Al       0.000008259   0.500014884   0.500042516
Al       0.500040156  -0.000017229   0.499996940
Al       0.500014533   0.500026953   0.000006951

     Ekin =     0.00000004 Ry    T =    0.0 K  Etot =  -158.01049802
     new unit-cell volume =    445.51020 a.u.^3 (    66.01780 Ang^3 )
     density =      2.71466 g/cm^3

CELL_PARAMETERS (angstrom)
   4.041602441  -0.000000039  -0.000000093
  -0.000000039   4.041601676  -0.000000249
  -0.000000093  -0.000000249   4.041605733

ATOMIC_POSITIONS (angstrom)
Al           -0.0001280813        0.0000259468       -0.0000581487
Al            0.0000333800        2.0207981466        2.0209098209
Al            2.0209002824       -0.0000696301        2.0207256272
Al            2.0207967284        2.0208469249        0.0000280915



     Writing output data file ./pwscf.save/
     NEW-OLD atomic charge density approx. for the potential
     extrapolated charge   12.00012, renormalised to   12.00000

     total cpu time spent up to now is      352.1 secs

     Self-consistent Calculation

     iteration #  1     ecut=    48.95 Ry     beta= 0.40
     Davidson diagonalization with overlap
     ethr =  1.00E-06,  avg # of iterations =  1.4

     Threshold (ethr) on eigenvalues was too large:
     Diagonalizing with lowered threshold

     Davidson diagonalization with overlap
     ethr =  8.59E-10,  avg # of iterations =  1.1

     total cpu time spent up to now is      361.3 secs

     End of self-consistent calculation

     Number of k-points >= 100: set verbosity='high' to print the bands.

     the Fermi energy is     7.9346 ev

!    total energy              =    -158.01049804 Ry
     Harris-Foulkes estimate   =    -158.01059540 Ry
     estimated scf accuracy    <       0.00000011 Ry

     convergence has been achieved in   1 iterations

     Forces acting on atoms (cartesian axes, Ry/au):

     atom    1 type  1   force =     0.00002452   -0.00001243    0.00000763
     atom    2 type  1   force =     0.00000185    0.00000924   -0.00001465
     atom    3 type  1   force =    -0.00002045    0.00000103    0.00001173
     atom    4 type  1   force =    -0.00000591    0.00000216   -0.00000471

     Total force =     0.000042     Total SCF correction =     0.000145
     SCF correction compared to forces is large: reduce conv_thr to get better values


     Computing stress (Cartesian axis) and pressure

          total   stress  (Ry/bohr**3)                   (kbar)     P=        0.03
   0.00000018   0.00000000   0.00000000            0.03        0.00        0.00
   0.00000000   0.00000018  -0.00000000            0.00        0.03       -0.00
   0.00000000  -0.00000000   0.00000018            0.00       -0.00        0.03


     Entering Dynamics;  it =    17   time =  0.01549 pico-seconds

  new lattice vectors (alat unit) :
   1.000034664  -0.000000009  -0.000000029
  -0.000000009   1.000034464  -0.000000070
  -0.000000029  -0.000000070   1.000035506
  new unit-cell volume =    445.5147 (a.u.)^3
  new positions in cryst coord
Al      -0.000033248   0.000006886  -0.000015112
Al       0.000008935   0.499999214   0.500027892
Al       0.500025671  -0.000018020   0.499979778
Al       0.499998643   0.500011920   0.000007442
  new positions in cart coord (alat unit)
Al      -0.000033249   0.000006887  -0.000015113
Al       0.000008916   0.500016411   0.500045611
Al       0.500042989  -0.000018061   0.499997516
Al       0.500015970   0.500029148   0.000007393

     Ekin =     0.00000004 Ry    T =    0.0 K  Etot =  -158.01049801
     new unit-cell volume =    445.51472 a.u.^3 (    66.01847 Ang^3 )
     density =      2.71463 g/cm^3

CELL_PARAMETERS (angstrom)
   4.041616083  -0.000000038  -0.000000116
  -0.000000038   4.041615273  -0.000000283
  -0.000000116  -0.000000283   4.041619485

ATOMIC_POSITIONS (angstrom)
Al           -0.0001343753        0.0000278323       -0.0000610774
Al            0.0000360334        2.0208043175        2.0209223301
Al            2.0209117338       -0.0000729924        2.0207279557
Al            2.0208025367        2.0208557945        0.0000298769



     Writing output data file ./pwscf.save/
     NEW-OLD atomic charge density approx. for the potential
     extrapolated charge   12.00012, renormalised to   12.00000

     total cpu time spent up to now is      371.4 secs

     Self-consistent Calculation

     iteration #  1     ecut=    48.95 Ry     beta= 0.40
     Davidson diagonalization with overlap
     ethr =  1.00E-06,  avg # of iterations =  1.5

     Threshold (ethr) on eigenvalues was too large:
     Diagonalizing with lowered threshold

     Davidson diagonalization with overlap
     ethr =  1.30E-09,  avg # of iterations =  1.1

     total cpu time spent up to now is      380.6 secs

     End of self-consistent calculation

     Number of k-points >= 100: set verbosity='high' to print the bands.

     the Fermi energy is     7.9345 ev

!    total energy              =    -158.01049802 Ry
     Harris-Foulkes estimate   =    -158.01059757 Ry
     estimated scf accuracy    <       0.00000016 Ry

     convergence has been achieved in   1 iterations

     Forces acting on atoms (cartesian axes, Ry/au):

     atom    1 type  1   force =     0.00004002    0.00001997    0.00001899
     atom    2 type  1   force =     0.00001560   -0.00002386   -0.00002661
     atom    3 type  1   force =    -0.00003584    0.00003473    0.00000201
     atom    4 type  1   force =    -0.00001979   -0.00003083    0.00000560

     Total force =     0.000088     Total SCF correction =     0.000175
     SCF correction compared to forces is large: reduce conv_thr to get better values


     Computing stress (Cartesian axis) and pressure

          total   stress  (Ry/bohr**3)                   (kbar)     P=        0.02
   0.00000014  -0.00000000   0.00000000            0.02       -0.00        0.00
  -0.00000000   0.00000014   0.00000000           -0.00        0.02        0.00
   0.00000000   0.00000000   0.00000015            0.00        0.00        0.02


     Entering Dynamics;  it =    18   time =  0.01646 pico-seconds

  new lattice vectors (alat unit) :
   1.000038097  -0.000000009  -0.000000034
  -0.000000009   1.000037885  -0.000000077
  -0.000000034  -0.000000077   1.000038968
  new unit-cell volume =    445.5193 (a.u.)^3
  new positions in cryst coord
Al      -0.000034720   0.000007395  -0.000015796
Al       0.000009627   0.499999012   0.500029233
Al       0.500026743  -0.000018774   0.499978660
Al       0.499998350   0.500012367   0.000007902
  new positions in cart coord (alat unit)
Al      -0.000034721   0.000007396  -0.000015797
Al       0.000009606   0.500017916   0.500048680
Al       0.500045775  -0.000018818   0.499998126
Al       0.500017394   0.500031305   0.000007847

     Ekin =     0.00000004 Ry    T =    0.0 K  Etot =  -158.01049798
     new unit-cell volume =    445.51931 a.u.^3 (    66.01915 Ang^3 )
     density =      2.71460 g/cm^3

CELL_PARAMETERS (angstrom)
   4.041629957  -0.000000038  -0.000000139
  -0.000000038   4.041629099  -0.000000312
  -0.000000139  -0.000000312   4.041633476

ATOMIC_POSITIONS (angstrom)
Al           -0.0001403247        0.0000298896       -0.0000638427
Al            0.0000388211        2.0208104001        2.0209347326
Al            2.0209229933       -0.0000760539        2.0207304219
Al            2.0208082908        2.0208645132        0.0000317130



     Writing output data file ./pwscf.save/
     NEW-OLD atomic charge density approx. for the potential
     extrapolated charge   12.00012, renormalised to   12.00000

     total cpu time spent up to now is      390.8 secs

     Self-consistent Calculation

     iteration #  1     ecut=    48.95 Ry     beta= 0.40
     Davidson diagonalization with overlap
     ethr =  1.00E-06,  avg # of iterations =  1.5

     Threshold (ethr) on eigenvalues was too large:
     Diagonalizing with lowered threshold

     Davidson diagonalization with overlap
     ethr =  1.98E-09,  avg # of iterations =  1.1

     total cpu time spent up to now is      400.0 secs

     End of self-consistent calculation

     Number of k-points >= 100: set verbosity='high' to print the bands.

     the Fermi energy is     7.9344 ev

!    total energy              =    -158.01049798 Ry
     Harris-Foulkes estimate   =    -158.01059931 Ry
     estimated scf accuracy    <       0.00000024 Ry

     convergence has been achieved in   1 iterations

     Forces acting on atoms (cartesian axes, Ry/au):

     atom    1 type  1   force =     0.00002478   -0.00002001    0.00000666
     atom    2 type  1   force =    -0.00000115    0.00001669   -0.00001469
     atom    3 type  1   force =    -0.00002010   -0.00000489    0.00001538
     atom    4 type  1   force =    -0.00000352    0.00000822   -0.00000734

     Total force =     0.000049     Total SCF correction =     0.000213
     SCF correction compared to forces is large: reduce conv_thr to get better values


     Computing stress (Cartesian axis) and pressure

          total   stress  (Ry/bohr**3)                   (kbar)     P=        0.01
   0.00000007   0.00000000   0.00000000            0.01        0.00        0.00
   0.00000000   0.00000007  -0.00000000            0.00        0.01       -0.00
   0.00000000  -0.00000000   0.00000007            0.00       -0.00        0.01


     Entering Dynamics;  it =    19   time =  0.01742 pico-seconds

  new lattice vectors (alat unit) :
   1.000041557  -0.000000009  -0.000000040
  -0.000000009   1.000041333  -0.000000086
  -0.000000040  -0.000000086   1.000042459
  new unit-cell volume =    445.5239 (a.u.)^3
  new positions in cryst coord
Al      -0.000036139   0.000007862  -0.000016466
Al       0.000010317   0.499998846   0.500030543
Al       0.500027772  -0.000019539   0.499977575
Al       0.499998050   0.500012831   0.000008348
  new positions in cart coord (alat unit)
Al      -0.000036140   0.000007862  -0.000016467
Al       0.000010293   0.500019469   0.500051731
Al       0.500048532  -0.000019587   0.499998784
Al       0.500018824   0.500033493   0.000008285

     Ekin =     0.00000003 Ry    T =    0.0 K  Etot =  -158.01049795
     new unit-cell volume =    445.52395 a.u.^3 (    66.01984 Ang^3 )
     density =      2.71457 g/cm^3

CELL_PARAMETERS (angstrom)
   4.041643941  -0.000000037  -0.000000160
  -0.000000037   4.041643034  -0.000000347
  -0.000000160  -0.000000347   4.041647585

ATOMIC_POSITIONS (angstrom)
Al           -0.0001460609        0.0000317747       -0.0000665507
Al            0.0000416005        2.0208166777        2.0209470644
Al            2.0209341355       -0.0000791596        2.0207330799
Al            2.0208140698        2.0208733572        0.0000334844



     Writing output data file ./pwscf.save/
     NEW-OLD atomic charge density approx. for the potential
     extrapolated charge   12.00012, renormalised to   12.00000

     total cpu time spent up to now is      410.1 secs

     Self-consistent Calculation

     iteration #  1     ecut=    48.95 Ry     beta= 0.40
     Davidson diagonalization with overlap
     ethr =  1.00E-06,  avg # of iterations =  1.5

     Threshold (ethr) on eigenvalues was too large:
     Diagonalizing with lowered threshold

     Davidson diagonalization with overlap
     ethr =  3.03E-09,  avg # of iterations =  1.1

     total cpu time spent up to now is      419.4 secs

     End of self-consistent calculation

     Number of k-points >= 100: set verbosity='high' to print the bands.

     the Fermi energy is     7.9342 ev

!    total energy              =    -158.01049793 Ry
     Harris-Foulkes estimate   =    -158.01060017 Ry
     estimated scf accuracy    <       0.00000037 Ry

     convergence has been achieved in   1 iterations

     Forces acting on atoms (cartesian axes, Ry/au):

     atom    1 type  1   force =     0.00004637    0.00002867    0.00002294
     atom    2 type  1   force =     0.00001891   -0.00003268   -0.00003137
     atom    3 type  1   force =    -0.00004157    0.00004481    0.00000024
     atom    4 type  1   force =    -0.00002371   -0.00004081    0.00000819

     Total force =     0.000109     Total SCF correction =     0.000259
     SCF correction compared to forces is large: reduce conv_thr to get better values


     Computing stress (Cartesian axis) and pressure

          total   stress  (Ry/bohr**3)                   (kbar)     P=        0.01
   0.00000004  -0.00000000  -0.00000000            0.01       -0.00       -0.00
  -0.00000000   0.00000004   0.00000000           -0.00        0.01        0.00
  -0.00000000   0.00000000   0.00000004           -0.00        0.00        0.01


     Entering Dynamics;  it =    20   time =  0.01839 pico-seconds

  new lattice vectors (alat unit) :
   1.000045033  -0.000000009  -0.000000045
  -0.000000009   1.000044795  -0.000000093
  -0.000000045  -0.000000093   1.000045967
  new unit-cell volume =    445.5286 (a.u.)^3
  new positions in cryst coord
Al      -0.000037459   0.000008389  -0.000017087
Al       0.000011048   0.499998610   0.500031787
Al       0.500028713  -0.000020207   0.499976491
Al       0.499997699   0.500013208   0.000008810
  new positions in cart coord (alat unit)
Al      -0.000037461   0.000008390  -0.000017088
Al       0.000011021   0.500020960   0.500054725
Al       0.500051208  -0.000020259   0.499999451
Al       0.500020211   0.500035602   0.000008742

     Ekin =     0.00000003 Ry    T =    0.0 K  Etot =  -158.01049790
     new unit-cell volume =    445.52860 a.u.^3 (    66.02053 Ang^3 )
     density =      2.71454 g/cm^3

CELL_PARAMETERS (angstrom)
   4.041657987  -0.000000036  -0.000000181
  -0.000000036   4.041657026  -0.000000376
  -0.000000181  -0.000000376   4.041661764

ATOMIC_POSITIONS (angstrom)
Al           -0.0001513979        0.0000339066       -0.0000690612
Al            0.0000445421        2.0208227057        2.0209591641
Al            2.0209449509       -0.0000818773        2.0207357752
Al            2.0208196753        2.0208818786        0.0000353286



     Writing output data file ./pwscf.save/
     NEW-OLD atomic charge density approx. for the potential
     extrapolated charge   12.00013, renormalised to   12.00000

     total cpu time spent up to now is      429.5 secs

     Self-consistent Calculation

     iteration #  1     ecut=    48.95 Ry     beta= 0.40
     Davidson diagonalization with overlap
     ethr =  1.00E-06,  avg # of iterations =  1.5

     Threshold (ethr) on eigenvalues was too large:
     Diagonalizing with lowered threshold

     Davidson diagonalization with overlap
     ethr =  4.70E-09,  avg # of iterations =  1.1

     total cpu time spent up to now is      438.7 secs

     End of self-consistent calculation

     Number of k-points >= 100: set verbosity='high' to print the bands.

     the Fermi energy is     7.9341 ev

!    total energy              =    -158.01049784 Ry
     Harris-Foulkes estimate   =    -158.01060070 Ry
     estimated scf accuracy    <       0.00000057 Ry

     convergence has been achieved in   1 iterations

     Forces acting on atoms (cartesian axes, Ry/au):

     atom    1 type  1   force =     0.00002296   -0.00003155    0.00000405
     atom    2 type  1   force =    -0.00000583    0.00002818   -0.00001283
     atom    3 type  1   force =    -0.00001759   -0.00001519    0.00002013
     atom    4 type  1   force =     0.00000045    0.00001855   -0.00001134

     Total force =     0.000063     Total SCF correction =     0.000317
     SCF correction compared to forces is large: reduce conv_thr to get better values


     Computing stress (Cartesian axis) and pressure

          total   stress  (Ry/bohr**3)                   (kbar)     P=       -0.01
  -0.00000005   0.00000000   0.00000000           -0.01        0.00        0.00
   0.00000000  -0.00000005  -0.00000000            0.00       -0.01       -0.00
   0.00000000  -0.00000000  -0.00000004            0.00       -0.00       -0.01


     Entering Dynamics;  it =    21   time =  0.01936 pico-seconds

  new lattice vectors (alat unit) :
   1.000048489  -0.000000008  -0.000000049
  -0.000000008   1.000048237  -0.000000102
  -0.000000049  -0.000000102   1.000049458
  new unit-cell volume =    445.5332 (a.u.)^3
  new positions in cryst coord
Al      -0.000038731   0.000008850  -0.000017700
Al       0.000011766   0.499998434   0.500033002
Al       0.500029616  -0.000020908   0.499975449
Al       0.499997349   0.500013625   0.000009248
  new positions in cart coord (alat unit)
Al      -0.000038733   0.000008850  -0.000017701
Al       0.000011737   0.500022501   0.500057682
Al       0.500053837  -0.000020964   0.500000152
Al       0.500021589   0.500037740   0.000009173

     Ekin =     0.00000003 Ry    T =    0.0 K  Etot =  -158.01049781
     new unit-cell volume =    445.53323 a.u.^3 (    66.02121 Ang^3 )
     density =      2.71452 g/cm^3

CELL_PARAMETERS (angstrom)
   4.041671954  -0.000000034  -0.000000199
  -0.000000034   4.041670937  -0.000000411
  -0.000000199  -0.000000411   4.041675872

ATOMIC_POSITIONS (angstrom)
Al           -0.0001565372        0.0000357669       -0.0000715369
Al            0.0000474358        2.0208289329        2.0209711154
Al            2.0209555764       -0.0000847274        2.0207386098
Al            2.0208252462        2.0208905200        0.0000370737



     Writing output data file ./pwscf.save/
     NEW-OLD atomic charge density approx. for the potential
     extrapolated charge   12.00012, renormalised to   12.00000

     total cpu time spent up to now is      448.9 secs

     Self-consistent Calculation

     iteration #  1     ecut=    48.95 Ry     beta= 0.40
     Davidson diagonalization with overlap
     ethr =  1.00E-06,  avg # of iterations =  1.6

[...]
   0.000000310   0.000000838   4.041702227

ATOMIC_POSITIONS (angstrom)
Al            0.0000529337       -0.0000045949        0.0000198672
Al            0.0000080680        2.0207717743        2.0208203448
Al            2.0207490494        0.0000199561        2.0208662134
Al            2.0207751414        2.0207579449       -0.0000030503



     Writing output data file ./pwscf.save/
     NEW-OLD atomic charge density approx. for the potential
     extrapolated charge   12.00012, renormalised to   12.00000

     total cpu time spent up to now is     1931.6 secs

     Self-consistent Calculation

     iteration #  1     ecut=    48.95 Ry     beta= 0.40
     Davidson diagonalization with overlap
     ethr =  1.00E-06,  avg # of iterations =  1.6

     Threshold (ethr) on eigenvalues was too large:
     Diagonalizing with lowered threshold

     Davidson diagonalization with overlap
     ethr =  5.65E-09,  avg # of iterations =  1.0

     total cpu time spent up to now is     1940.9 secs

     End of self-consistent calculation

     Number of k-points >= 100: set verbosity='high' to print the bands.

     the Fermi energy is     7.9345 ev

!    total energy              =    -158.01049777 Ry
     Harris-Foulkes estimate   =    -158.01059397 Ry
     estimated scf accuracy    <       0.00000069 Ry

     convergence has been achieved in   1 iterations

     Forces acting on atoms (cartesian axes, Ry/au):

     atom    1 type  1   force =    -0.00001363    0.00000658   -0.00000273
     atom    2 type  1   force =    -0.00000464   -0.00000580    0.00000533
     atom    3 type  1   force =     0.00001120    0.00000253   -0.00000385
     atom    4 type  1   force =     0.00000707   -0.00000330    0.00000125

     Total force =     0.000023     Total SCF correction =     0.000068
     SCF correction compared to forces is large: reduce conv_thr to get better values


     Computing stress (Cartesian axis) and pressure

          total   stress  (Ry/bohr**3)                   (kbar)     P=        0.03
   0.00000015  -0.00000000   0.00000000            0.02       -0.00        0.00
  -0.00000000   0.00000010  -0.00000000           -0.00        0.01       -0.00
   0.00000000  -0.00000000   0.00000030            0.00       -0.00        0.04


     Entering Dynamics;  it =    96   time =  0.09196 pico-seconds

  new lattice vectors (alat unit) :
   1.000030049  -0.000000080   0.000000078
  -0.000000080   1.000019513   0.000000214
   0.000000078   0.000000214   1.000060384
  new unit-cell volume =    445.5171 (a.u.)^3
  new positions in cryst coord
Al       0.000013677  -0.000002230   0.000005370
Al       0.000000057   0.500000490   0.499991082
Al       0.499989057   0.000005278   0.500005344
Al       0.499997209   0.499996462  -0.000001796
  new positions in cart coord (alat unit)
Al       0.000013677  -0.000002230   0.000005370
Al       0.000000057   0.500010353   0.500021381
Al       0.500004120   0.000005345   0.500035575
Al       0.500012194   0.500006178  -0.000001650

     Ekin =     0.00000004 Ry    T =    0.0 K  Etot =  -158.01049772
     new unit-cell volume =    445.51709 a.u.^3 (    66.01882 Ang^3 )
     density =      2.71461 g/cm^3

CELL_PARAMETERS (angstrom)
   4.041597431  -0.000000322   0.000000316
  -0.000000322   4.041554851   0.000000864
   0.000000316   0.000000864   4.041720029

ATOMIC_POSITIONS (angstrom)
Al            0.0000552750       -0.0000090128        0.0000217030
Al            0.0000002285        2.0207798378        2.0208244044
Al            2.0207546472        0.0000216032        2.0208817720
Al            2.0207872743        2.0207629643       -0.0000066702



     Writing output data file ./pwscf.save/
     NEW-OLD atomic charge density approx. for the potential
     extrapolated charge   12.00012, renormalised to   12.00000

     total cpu time spent up to now is     1951.1 secs

     Self-consistent Calculation

     iteration #  1     ecut=    48.95 Ry     beta= 0.40
     Davidson diagonalization with overlap
     ethr =  1.00E-06,  avg # of iterations =  1.6

     Threshold (ethr) on eigenvalues was too large:
     Diagonalizing with lowered threshold

     Davidson diagonalization with overlap
     ethr =  8.90E-09,  avg # of iterations =  1.0

     total cpu time spent up to now is     1960.4 secs

     total energy              =    -158.01049790 Ry
     Harris-Foulkes estimate   =    -158.01059629 Ry
     estimated scf accuracy    <       0.00000108 Ry

     iteration #  2     ecut=    48.95 Ry     beta= 0.40
     Davidson diagonalization with overlap
     ethr =  9.02E-09,  avg # of iterations =  1.5

     total cpu time spent up to now is     1965.1 secs

     End of self-consistent calculation

     Number of k-points >= 100: set verbosity='high' to print the bands.

     the Fermi energy is     7.9344 ev

!    total energy              =    -158.01049805 Ry
     Harris-Foulkes estimate   =    -158.01049806 Ry
     estimated scf accuracy    <       0.00000002 Ry

     convergence has been achieved in   2 iterations

     Forces acting on atoms (cartesian axes, Ry/au):

     atom    1 type  1   force =    -0.00001487   -0.00000356   -0.00000501
     atom    2 type  1   force =    -0.00001062    0.00000386    0.00000634
     atom    3 type  1   force =     0.00001405   -0.00000559    0.00000052
     atom    4 type  1   force =     0.00001144    0.00000530   -0.00000185

     Total force =     0.000029     Total SCF correction =     0.000012
     SCF correction compared to forces is large: reduce conv_thr to get better values


     Computing stress (Cartesian axis) and pressure

          total   stress  (Ry/bohr**3)                   (kbar)     P=        0.02
   0.00000010  -0.00000000   0.00000000            0.01       -0.00        0.00
  -0.00000000   0.00000004  -0.00000000           -0.00        0.01       -0.00
   0.00000000  -0.00000000   0.00000026            0.00       -0.00        0.04


     Entering Dynamics;  it =    97   time =  0.09293 pico-seconds

  new lattice vectors (alat unit) :
   1.000033116  -0.000000082   0.000000080
  -0.000000082   1.000022077   0.000000220
   0.000000080   0.000000220   1.000064894
  new unit-cell volume =    445.5216 (a.u.)^3
  new positions in cryst coord
Al       0.000014224  -0.000003331   0.000005813
Al      -0.000001905   0.500001216   0.499989895
Al       0.499988958   0.000005672   0.500006992
Al       0.499998723   0.499996442  -0.000002700
  new positions in cart coord (alat unit)
Al       0.000014225  -0.000003331   0.000005814
Al      -0.000001906   0.500012365   0.500022451
Al       0.500005555   0.000005741   0.500039479
Al       0.500015240   0.500007440  -0.000002550

     Ekin =     0.00000004 Ry    T =    0.0 K  Etot =  -158.01049800
     new unit-cell volume =    445.52160 a.u.^3 (    66.01949 Ang^3 )
     density =      2.71459 g/cm^3

CELL_PARAMETERS (angstrom)
   4.041609825  -0.000000332   0.000000323
  -0.000000332   4.041565212   0.000000887
   0.000000323   0.000000887   4.041738255

ATOMIC_POSITIONS (angstrom)
Al            0.0000574884       -0.0000134614        0.0000234958
Al           -0.0000077023        2.0207879657        2.0208287292
Al            2.0207604455        0.0000232009        2.0208975472
Al            2.0207995847        2.0207680616       -0.0000103070



     Writing output data file ./pwscf.save/
     NEW-OLD atomic charge density approx. for the potential
     extrapolated charge   12.00012, renormalised to   12.00000

     total cpu time spent up to now is     1975.4 secs

     Self-consistent Calculation

     iteration #  1     ecut=    48.95 Ry     beta= 0.40
     Davidson diagonalization with overlap
     ethr =  1.00E-06,  avg # of iterations =  1.3

     Threshold (ethr) on eigenvalues was too large:
     Diagonalizing with lowered threshold

     Davidson diagonalization with overlap
     ethr =  2.78E-10,  avg # of iterations =  2.3

     total cpu time spent up to now is     1985.2 secs

     End of self-consistent calculation

     Number of k-points >= 100: set verbosity='high' to print the bands.

     the Fermi energy is     7.9343 ev

!    total energy              =    -158.01049805 Ry
     Harris-Foulkes estimate   =    -158.01059749 Ry
     estimated scf accuracy    <       0.00000005 Ry

     convergence has been achieved in   1 iterations

     Forces acting on atoms (cartesian axes, Ry/au):

     atom    1 type  1   force =    -0.00001404    0.00000205   -0.00000419
     atom    2 type  1   force =    -0.00000539   -0.00000098    0.00000658
     atom    3 type  1   force =     0.00001228   -0.00000261   -0.00000266
     atom    4 type  1   force =     0.00000715    0.00000154    0.00000027

     Total force =     0.000023     Total SCF correction =     0.000016
     SCF correction compared to forces is large: reduce conv_thr to get better values


     Computing stress (Cartesian axis) and pressure

          total   stress  (Ry/bohr**3)                   (kbar)     P=        0.01
   0.00000002   0.00000000  -0.00000000            0.00        0.00       -0.00
   0.00000000  -0.00000004  -0.00000000            0.00       -0.01       -0.00
  -0.00000000  -0.00000000   0.00000019           -0.00       -0.00        0.03


     Entering Dynamics;  it =    98   time =  0.09390 pico-seconds

  new lattice vectors (alat unit) :
   1.000036190  -0.000000084   0.000000081
  -0.000000084   1.000024625   0.000000225
   0.000000081   0.000000225   1.000069480
  new unit-cell volume =    445.5262 (a.u.)^3
  new positions in cryst coord
Al       0.000014742  -0.000004427   0.000006248
Al      -0.000003878   0.500001941   0.499988721
Al       0.499988884   0.000006060   0.500008633
Al       0.500000252   0.499996426  -0.000003603
  new positions in cart coord (alat unit)
Al       0.000014742  -0.000004427   0.000006248
Al      -0.000003880   0.500014366   0.500023573
Al       0.500007020   0.000006130   0.500043415
Al       0.500018305   0.500008696  -0.000003450

     Ekin =     0.00000004 Ry    T =    0.0 K  Etot =  -158.01049800
     new unit-cell volume =    445.52615 a.u.^3 (    66.02016 Ang^3 )
     density =      2.71456 g/cm^3

CELL_PARAMETERS (angstrom)
   4.041622251  -0.000000341   0.000000329
  -0.000000341   4.041575509   0.000000909
   0.000000329   0.000000909   4.041756789

ATOMIC_POSITIONS (angstrom)
Al            0.0000595809       -0.0000178923        0.0000252525
Al           -0.0000156794        2.0207960524        2.0208332639
Al            2.0207663650        0.0000247757        2.0209134532
Al            2.0208119727        2.0207731404       -0.0000139423



     Writing output data file ./pwscf.save/
     NEW-OLD atomic charge density approx. for the potential
     extrapolated charge   12.00012, renormalised to   12.00000

     total cpu time spent up to now is     1995.5 secs

     Self-consistent Calculation

     iteration #  1     ecut=    48.95 Ry     beta= 0.40
     Davidson diagonalization with overlap
     ethr =  1.00E-06,  avg # of iterations =  1.4

     Threshold (ethr) on eigenvalues was too large:
     Diagonalizing with lowered threshold

     Davidson diagonalization with overlap
     ethr =  5.81E-10,  avg # of iterations =  1.0

     total cpu time spent up to now is     2004.6 secs

     End of self-consistent calculation

     Number of k-points >= 100: set verbosity='high' to print the bands.

     the Fermi energy is     7.9342 ev

!    total energy              =    -158.01049804 Ry
     Harris-Foulkes estimate   =    -158.01059816 Ry
     estimated scf accuracy    <       0.00000007 Ry

     convergence has been achieved in   1 iterations

     Forces acting on atoms (cartesian axes, Ry/au):

     atom    1 type  1   force =    -0.00001523   -0.00000011   -0.00000583
     atom    2 type  1   force =    -0.00000316    0.00000138    0.00000899
     atom    3 type  1   force =     0.00001246   -0.00000635   -0.00000310
     atom    4 type  1   force =     0.00000593    0.00000508   -0.00000006

     Total force =     0.000025     Total SCF correction =     0.000021
     SCF correction compared to forces is large: reduce conv_thr to get better values


     Computing stress (Cartesian axis) and pressure

          total   stress  (Ry/bohr**3)                   (kbar)     P=       -0.00
  -0.00000005   0.00000000  -0.00000000           -0.01        0.00       -0.00
   0.00000000  -0.00000011  -0.00000000            0.00       -0.02       -0.00
  -0.00000000  -0.00000000   0.00000013           -0.00       -0.00        0.02


     Entering Dynamics;  it =    99   time =  0.09486 pico-seconds

  new lattice vectors (alat unit) :
   1.000039245  -0.000000086   0.000000082
  -0.000000086   1.000027127   0.000000229
   0.000000082   0.000000229   1.000074117
  new unit-cell volume =    445.5307 (a.u.)^3
  new positions in cryst coord
Al       0.000015227  -0.000005524   0.000006670
Al      -0.000005858   0.500002668   0.499987567
Al       0.499988838   0.000006435   0.500010269
Al       0.500001793   0.499996421  -0.000004506
  new positions in cart coord (alat unit)
Al       0.000015228  -0.000005524   0.000006671
Al      -0.000005860   0.500016346   0.500024739
Al       0.500008501   0.000006506   0.500047369
Al       0.500021373   0.500009941  -0.000004350

     Ekin =     0.00000004 Ry    T =    0.0 K  Etot =  -158.01049799
     new unit-cell volume =    445.53069 a.u.^3 (    66.02084 Ang^3 )
     density =      2.71453 g/cm^3

CELL_PARAMETERS (angstrom)
   4.041634597  -0.000000349   0.000000333
  -0.000000349   4.041585621   0.000000927
   0.000000333   0.000000927   4.041775532

ATOMIC_POSITIONS (angstrom)
Al            0.0000615423       -0.0000223242        0.0000269590
Al           -0.0000236844        2.0208040567        2.0208379785
Al            2.0207723499        0.0000262943        2.0209294359
Al            2.0208243720        2.0207781717       -0.0000175819



     Writing output data file ./pwscf.save/
     NEW-OLD atomic charge density approx. for the potential
     extrapolated charge   12.00012, renormalised to   12.00000

     total cpu time spent up to now is     2014.8 secs

     Self-consistent Calculation

     iteration #  1     ecut=    48.95 Ry     beta= 0.40
     Davidson diagonalization with overlap
     ethr =  1.00E-06,  avg # of iterations =  1.4

     Threshold (ethr) on eigenvalues was too large:
     Diagonalizing with lowered threshold

     Davidson diagonalization with overlap
     ethr =  8.60E-10,  avg # of iterations =  1.0

     total cpu time spent up to now is     2023.9 secs

     End of self-consistent calculation

     Number of k-points >= 100: set verbosity='high' to print the bands.

     the Fermi energy is     7.9341 ev

!    total energy              =    -158.01049802 Ry
     Harris-Foulkes estimate   =    -158.01059804 Ry
     estimated scf accuracy    <       0.00000011 Ry

     convergence has been achieved in   1 iterations

     Forces acting on atoms (cartesian axes, Ry/au):

     atom    1 type  1   force =    -0.00001336    0.00000579   -0.00000425
     atom    2 type  1   force =     0.00000084   -0.00000423    0.00000797
     atom    3 type  1   force =     0.00001018   -0.00000174   -0.00000644
     atom    4 type  1   force =     0.00000233    0.00000017    0.00000271

     Total force =     0.000022     Total SCF correction =     0.000023
     SCF correction compared to forces is large: reduce conv_thr to get better values


     Computing stress (Cartesian axis) and pressure

          total   stress  (Ry/bohr**3)                   (kbar)     P=       -0.01
  -0.00000008   0.00000000   0.00000000           -0.01        0.00        0.00
   0.00000000  -0.00000015   0.00000000            0.00       -0.02        0.00
   0.00000000   0.00000000   0.00000010            0.00        0.00        0.01


     Entering Dynamics;  it =   100   time =  0.09583 pico-seconds

  new lattice vectors (alat unit) :
   1.000042265  -0.000000088   0.000000084
  -0.000000088   1.000029569   0.000000234
   0.000000084   0.000000234   1.000078795
  new unit-cell volume =    445.5352 (a.u.)^3
  new positions in cryst coord
Al       0.000015684  -0.000006608   0.000007083
Al      -0.000007836   0.500003386   0.499986430
Al       0.499988812   0.000006805   0.500011890
Al       0.500003340   0.499996416  -0.000005403
  new positions in cart coord (alat unit)
Al       0.000015685  -0.000006608   0.000007084
Al      -0.000007839   0.500018288   0.500025943
Al       0.500009986   0.000006879   0.500051330
Al       0.500024429   0.500011157  -0.000005245

     Ekin =     0.00000004 Ry    T =    0.0 K  Etot =  -158.01049798
     new unit-cell volume =    445.53521 a.u.^3 (    66.02151 Ang^3 )
     density =      2.71450 g/cm^3

CELL_PARAMETERS (angstrom)
   4.041646802  -0.000000356   0.000000338
  -0.000000356   4.041595492   0.000000945
   0.000000337   0.000000945   4.041794437

ATOMIC_POSITIONS (angstrom)
Al            0.0000633888       -0.0000267062        0.0000286290
Al           -0.0000316806        2.0208119040        2.0208428432
Al            2.0207783533        0.0000277994        2.0209454448
Al            2.0208367223        2.0207830840       -0.0000211968



     Maximum number of iterations reached, stopping

     Writing output data file ./pwscf.save/

     init_run     :      6.14s CPU      6.67s WALL (       1 calls)
     electrons    :    952.64s CPU   1007.89s WALL (     100 calls)
     update_pot   :    234.55s CPU    235.77s WALL (      99 calls)
     forces       :    173.69s CPU    175.37s WALL (     100 calls)
     stress       :    525.47s CPU    527.28s WALL (     100 calls)

     Called by init_run:
     wfcinit      :      2.35s CPU      2.49s WALL (       1 calls)
     potinit      :      0.70s CPU      0.73s WALL (       1 calls)
     hinit0       :      2.55s CPU      2.87s WALL (       1 calls)

     Called by electrons:
     c_bands      :    723.97s CPU    766.61s WALL (     215 calls)
     sum_band     :    190.96s CPU    199.80s WALL (     215 calls)
     v_of_rho     :      2.05s CPU      2.09s WALL (     215 calls)
     newd         :     26.72s CPU     26.83s WALL (     215 calls)
     PAW_pot      :     56.64s CPU     57.21s WALL (     314 calls)
     mix_rho      :      0.04s CPU      0.04s WALL (     215 calls)

     Called by c_bands:
     init_us_2    :     74.39s CPU     77.45s WALL (  367920 calls)
     cegterg      :    628.01s CPU    666.73s WALL (  108360 calls)

     Called by sum_band:
     sum_band:bec :      3.66s CPU      3.89s WALL (  158256 calls)
     addusdens    :     35.95s CPU     36.16s WALL (     215 calls)

     Called by *egterg:
     h_psi        :    522.47s CPU    554.88s WALL (  258199 calls)
     s_psi        :     13.50s CPU     14.49s WALL (  258199 calls)
     g_psi        :      1.82s CPU      1.94s WALL (  149335 calls)
     cdiaghg      :     40.23s CPU     42.46s WALL (  157399 calls)

     Called by h_psi:
     h_psi:calbec :     28.72s CPU     30.68s WALL (  258199 calls)
     vloc_psi     :    476.74s CPU    506.05s WALL (  258199 calls)
     add_vuspsi   :     14.25s CPU     15.30s WALL (  258199 calls)

     General routines
     calbec       :     92.73s CPU     96.84s WALL (  668455 calls)
     fft          :     16.68s CPU     17.34s WALL (    5294 calls)
     ffts         :      0.11s CPU      0.11s WALL (     430 calls)
     fftw         :    543.54s CPU    576.76s WALL ( 5866048 calls)
     interpolate  :      0.20s CPU      0.21s WALL (     215 calls)

     Parallel routines
     fft_scatt_xy :     48.67s CPU     51.11s WALL ( 5871772 calls)
     fft_scatt_yz :    293.76s CPU    312.07s WALL ( 5871772 calls)

     PWSCF        :  32m49.35s CPU  33m57.13s WALL


   This run was terminated on:  18: 0:50  19Apr2021            

=------------------------------------------------------------------------------=
   JOB DONE.
=------------------------------------------------------------------------------=
